 64
 energy=-221.44977802853856 stress="-0.02226752       0.00522333      -0.00285883       0.00522333      -0.02394087       0.00036938      -0.00285883       0.00036938      -0.01820485" free_energy=-221.79470818 cutoff=6.70000000 nneightol=1.20000000 pbc="T T T" Lattice="11.46428009       0.00000000       0.00000000       0.00000000      11.46428009       0.00000000       0.00000000       0.00000000      11.46428009" Properties=species:S:1:pos:R:3:forces:R:3:Z:I:1:map_shift:I:3:n_neighb:I:1:force:R:3
 Li              1.95944999      8.32631002      3.29561000      0.14014198     -0.04929204     -0.13905895       3       0      -1       0      62      0.03925420     -0.07932636     -0.09538115
 Li              6.46481003      0.10979295      2.41077004      0.83530255     -0.41720988     -0.15313844       3      -1       0       0      68      0.80604318     -0.33738671     -0.12012990
 Li             10.31539999     11.32010003      8.69778995     -0.11845165     -0.02497239      0.96824303       3      -1      -1      -1      65     -0.14628726     -0.05317899      0.69266536
 Li              6.03420995      1.78786996      5.11418004     -0.16272915      0.36315117      0.14380297       3      -1       0       0      67     -0.31717367      0.36793194     -0.03510103
 Li              4.18351001      6.34585001      1.03285998     -0.26270764     -0.84593186     -1.38852699       3       0      -1       0      71     -0.21125756     -0.98876459     -1.22360186
 Li              2.05503996     10.08030005      7.54033995     -0.88951548     -0.52991709      0.19889667       3       0      -1      -1      62     -0.93379024     -0.47107063      0.09001418
 Li              7.09737003      4.52147997      2.08543005     -3.65283424     -1.25704806     -2.14930060       3      -1       0       0      66     -3.29964147     -1.07546734     -2.10931651
 Li              8.67398002      1.36697003      0.35627096      0.65040372     -1.87567624      0.58682322       3      -1       0       0      63      0.58948403     -2.03778194      0.74998276
 Li              6.91982995      8.21608005      2.59064998     -0.13269760      2.20494842      1.67480253       3      -1      -1       0      63     -0.08342741      2.16500649      1.54288634
 Li              6.39843999      9.43196004      5.75339998      1.85095643     -1.31670057      2.36850195       3      -1      -1      -1      65      1.65744034     -1.25764185      2.46776948
 Li              6.41650999      2.81258996     10.35549997      0.87590767      1.16512394     -0.89213661       3      -1       0      -1      64      0.80417192      1.09747813     -0.72060985
 Li              3.04458996      0.25733503      3.88953996      1.44071874      1.35414016      0.88666262       3       0       0       0      64      1.32402264      1.35289830      0.85576271
 Li              0.53142097      7.51943002      9.88723996     -0.92898561      0.31377370     -0.12089635       3       0      -1      -1      64     -1.08462453      0.11622750     -0.11552501
 Li              9.97374002      3.32776994      3.99442998     -0.10519866     -0.54223639     -0.11486737       3      -1       0       0      72     -0.19054818     -0.54237142     -0.21076815
 Li              8.15296001      5.74947002      7.06747004     -0.30258324     -0.35482864      0.31718250       3      -1      -1      -1      66     -0.33533873     -0.38800464      0.29711647
 Li              7.31488996      7.20280999     10.14099997      3.62587914     -3.24310145      1.98911409       3      -1      -1      -1      60      3.45786524     -3.09112665      1.89116341
 Li              2.21386999      4.26143994      3.51485003     -0.55605867      0.32167970     -1.69847183       3       0       0       0      66     -0.77072195      0.42121256     -1.85022035
 Li             10.57109998      7.08436002      2.83450003     -0.56474563     -1.11748582     -0.20348802       3      -1      -1       0      67     -0.31177799     -1.13894248     -0.22566495
 Li             10.33659996      8.92277003      5.96349002     -0.17262847      0.10961791      1.57872771       3      -1      -1      -1      66     -0.13761085      0.16800917      1.52297262
 Li             11.01920005     11.43370004      3.00378996      0.17880864     -2.30685756      1.95784404       3      -1      -1       0      66      0.23657053     -2.36625218      2.31996194
 Li              1.68382004      2.73946000      6.22406004     -0.72368620     -0.90850334      0.22510657       3       0       0      -1      63     -0.68517394     -0.72594286      0.18566441
 Li              9.79912000      2.58967001      7.42651994     -0.62616232     -0.55983532      0.66191724       3      -1       0      -1      68     -0.57820299     -0.49783194      0.60579874
 Li              0.38553698      0.75688897      0.49904000      0.94858174     -0.56092659     -1.26678107       3       0       0       0      66      1.07222127     -0.45837333     -1.13797373
 Li              4.56374006      6.69532002      4.57658005     -0.11859791     -0.17143970      0.31910908       3       0      -1       0      62      0.00692373     -0.21399099      0.37777604
 Li              4.43877000      3.82463998      7.79087001     -1.11059915      0.21415768     -0.12715780       3       0       0      -1      66     -1.12008103      0.32044494     -0.25632161
 Li              3.85642997      7.50489997      8.66355004     -0.02384533      0.34981061      0.03937062       3       0      -1      -1      66     -0.14329089      0.17644431     -0.15768541
 Li              1.00313001      5.91616994      6.50222004      0.22626984     -0.51191336     -0.38250657       3       0      -1      -1      64      0.26634752     -0.40178827     -0.59008908
 Li              1.93081004      2.25936003      9.90088005     -0.00587863      0.03411138      0.22487304       3       0       0      -1      67     -0.18633794      0.26069351      0.09817059
 Li              3.98329003      1.78014005      0.85430405      1.16895309      0.14740607      0.64941496       3       0       0       0      66      1.27130284      0.04613498      0.59476687
 Li              9.63860002      4.55432994     10.64169999      1.71795512      0.18742980     -0.01786328       3      -1       0      -1      68      1.63092300      0.26694141      0.06909968
 Li              9.47695998      9.12783000      0.29560497      0.00881155      0.45050242     -0.41066205       3      -1      -1       0      64     -0.07702796      0.41708101     -0.37144923
 Li              5.83132005     11.31390003      9.35644999     -0.30216770     -0.42168555      0.08797839       3      -1      -1      -1      65     -0.27256899     -0.47349724      0.04298712
 Cl              1.73734997     10.51930000      3.16947999     -0.91499518     -1.49243908     -1.41050758      17       0      -1       0      66     -0.86891722     -1.34881811     -1.52113826
 Cl             11.24919999      2.58407006      9.31827004     -0.41860067     -0.44118362      0.58459365      17      -1       0      -1      68     -0.24652842     -0.63768873      0.89062759
 Cl              3.19890994      3.63801996      5.10989996      1.17076359     -1.01160395      0.23091842      17       0       0       0      68      1.15203573     -0.95360112      0.34471381
 Cl              8.44558003      3.31302000      0.19176198     -1.41912904      0.83112085      0.83890475      17      -1       0       0      65     -1.26895363      0.89004557      0.70764771
 Cl              0.17551996     10.57659997      7.11864005     -1.91745706      0.61558984     -0.43638735      17       0      -1      -1      67     -1.83673007      0.54527167     -0.16395453
 Cl              2.02363998      2.17143003      0.83032296     -0.90167925      0.03709159     -0.98548374      17       0       0       0      68     -0.79140806      0.31906802     -1.16268634
 Cl              4.15137002      4.16742998      1.51836995      0.70801431      0.64299714      0.20823817      17       0       0       0      65      0.60169945      0.75287110     -0.12137004
 Cl              7.96277999      1.94672005      4.11883003      0.38811223     -0.15211289      0.23918722      17      -1       0       0      68      0.22312633     -0.10535717      0.23506314
 Cl              8.46761999     10.32339999      1.88753995     -0.62993356     -0.17931725      0.35017436      17      -1      -1       0      60     -0.65588660     -0.15161398      0.32346634
 Cl             10.81409995      8.73527998      4.04097003     -0.34741544      0.99236470     -0.98120663      17      -1      -1       0      65     -0.30191357      0.84446085     -1.04797781
 Cl              0.19298900      1.30437002      4.77122002      0.32542542      0.65355646      0.80362229      17       0       0       0      66      0.23595277      0.40986742      0.85252610
 Cl              9.73018001      7.84482997      9.98399998      0.03513454     -0.05409369      0.36432951      17      -1      -1      -1      60      0.17784837     -0.10482967      0.27773055
 Cl              3.96206001     10.02299997      7.69950004      2.36986448     -0.19838916      0.32629799      17       0      -1      -1      62      2.30855039     -0.53968859      0.36608767
 Cl              5.19776003     10.12019998      4.52673003     -1.43480317      0.58052808     -1.82769809      17       0      -1       0      72     -1.15320005      0.46104893     -1.98380483
 Cl              4.37088003      7.69636995      2.49096004     -0.83613592      1.13728245      2.11629927      17       0      -1       0      68     -0.74741856      1.08735178      2.11520055
 Cl              6.14388998      8.36127000      9.51651002     -3.67856916      3.25433949     -1.84641943      17      -1      -1      -1      61     -3.50645111      3.09779872     -1.71084457
 Cl              3.58536005      1.86139004      8.40348996     -0.26085446      0.08834224      0.25187845      17       0       0      -1      65     -0.23512600      0.14117936      0.54678719
 Cl              5.93624000      1.22672004      0.02518874     -1.94488628     -0.97434309      1.44291099      17      -1       0       0      64     -2.28303461     -0.75010918      1.43030834
 Cl              6.94746998      6.83083996      1.31194000      0.28337220     -1.75943594     -2.94691996      17      -1      -1       0      66      0.28560426     -1.75265557     -2.84268769
 Cl              0.93673796      6.23509005      3.85804999      0.77690022     -0.91807421     -0.00533574      17       0      -1       0      67      0.86340262     -0.90143224      0.09016795
 Cl             11.16959994      3.81050005      6.58791003      0.41343680      2.15647190     -1.19555189      17      -1       0      -1      61      0.49800131      2.16547513     -1.32515132
 Cl              7.95868999      0.38151404      9.96139001      1.66101563     -0.72722368     -2.34201346      17      -1       0      -1      65      1.77893866     -0.87441485     -2.18799430
 Cl              6.37539002      3.61589997      7.31030000      1.67516227     -0.57432389     -0.52709403      17      -1       0      -1      67      1.66742076     -0.59182473     -0.41461544
 Cl              1.01210998      7.60943998      7.79317995      0.03573330      0.15866874     -0.54168458      17       0      -1      -1      63      0.21889350      0.19189015     -0.35513143
 Cl             11.05380005     10.58910004     10.80920001      0.37934594     -0.06336203     -0.07466548      17      -1      -1      -1      63      0.41195867     -0.02968963     -0.10871919
 Cl              4.92838006      1.29290001      3.15447004     -1.19356019      1.04329084     -0.00896620      17       0       0       0      64     -1.06644165      0.74241660      0.21841020
 Cl              8.35088003      5.27461003      9.29362000     -1.14004599      0.10503728     -1.56591651      17      -1       0      -1      65     -1.20740261      0.35204261     -1.62142509
 Cl              8.62497996      5.02872002      2.87751000      5.06147967      1.27554893      3.07675940      17      -1       0       0      62      4.70098461      1.35863482      2.90545583
 Cl              2.24666001      7.31979002     10.98150000      1.27771216     -0.34874414      0.67635915      17       0      -1      -1      69      1.31631137     -0.44780211      0.52609659
 Cl              3.72238995      5.78482002      6.92425000      0.17472581      1.47794640      0.48260563      17       0      -1      -1      62      0.13797574      1.66050116      0.72975558
 Cl             10.82679997      1.52190003      1.95667002     -2.57990896      3.14484975     -0.81391848      17      -1       0       0      65     -2.50000913      3.21484919     -0.93270861
 Cl              7.79066996      7.55443999      5.86238997     -0.02684118      0.49932885     -0.29682540      17      -1      -1      -1      63     -0.18697007      0.37698876     -0.24455657
 64
 energy=-223.37083744853837 stress="-0.02183036       0.00012671      -0.00252871       0.00012671      -0.01210246       0.00446804      -0.00252871       0.00446804      -0.01493609" free_energy=-223.64687044 cutoff=6.70000000 nneightol=1.20000000 pbc="T T T" Lattice="11.46428009       0.00000000       0.00000000       0.00000000      11.46428009       0.00000000       0.00000000       0.00000000      11.46428009" Properties=species:S:1:pos:R:3:forces:R:3:Z:I:1:map_shift:I:3:n_neighb:I:1:force:R:3
 Li              3.35214002      6.96997998      1.72687001     -0.35669211      0.41405664      0.22389623       3       0      -1       0      61     -0.37727160      0.49486786      0.17331658
 Li              6.21214005      7.82473997      5.10584000     -1.57648184      0.35256915      0.97779110       3      -1      -1       0      65     -1.71786009      0.34571702      0.87121341
 Li              0.58765797      8.42954001      1.05319005     -3.21396780     -3.09663491      0.61472048       3       0      -1       0      63     -2.97302724     -2.60320199      0.70465714
 Li              2.72807999      1.95034001     10.06720004     -0.42373563     -0.05503696      0.25448976       3       0       0      -1      64     -0.36238424     -0.21435686      0.26702358
 Li              7.28859995      0.38858097      5.68014999      0.77035280      0.81060102      0.51728161       3      -1       0       0      68      0.75209946      0.99054037      0.48837779
 Li             10.63929995      0.81679900      8.13305997      0.14192361     -1.00418375      0.05095816       3      -1       0      -1      71      0.19548567     -0.95575625      0.02676664
 Li             10.62120003      5.07703004      1.32470995      3.50115933     -0.24027012      0.17783545       3      -1       0       0      69      3.42709118     -0.19774222      0.19238851
 Li             11.34600002      0.05671987      1.64909003     -0.10585981      0.42929772     -1.41526006       3      -1       0       0      67     -0.08185539      0.36163977     -1.70689994
 Li              4.93103002      3.48282995      4.78125001      0.00862869     -0.42594539      0.30469057       3       0       0       0      64      0.11040531     -0.33924815      0.21031309
 Li              4.34904000      0.21991986      6.84765004      0.45906642      0.04354101      0.11092696       3       0       0      -1      64      0.38126920      0.08922385      0.18790589
 Li              5.51734999      3.44721995      0.94262395      0.05062681     -0.44513707     -1.41539284       3       0       0       0      67      0.13882085     -0.42528490     -1.65199838
 Li              7.90125005      7.43621999      1.19046999      0.00330293      0.24693761      0.24244342       3      -1      -1       0      66      0.05003816      0.40344298      0.29058881
 Li              8.47175000      3.28765001      6.52325998     -6.24814787      4.92129248     -4.66309956       3      -1       0      -1      64     -5.38217325      4.13025311     -3.99097925
 Li              3.11253003      9.89185995     10.20539999     -1.26601683     -2.77238028      0.84978342       3       0      -1      -1      64     -1.02377742     -2.60496865      0.77702234
 Li              6.35958995     11.45673694     10.54180003     -0.30232150     -1.55844406      0.01366835       3      -1      -1      -1      70     -0.12904642     -1.37449567     -0.04517350
 Li              3.94231004     10.71340001      3.34556996      0.02827459      0.01689341      0.17370131       3       0      -1       0      62      0.02422807     -0.17679725      0.31427278
 Li              8.79661996      1.96009004      2.79293995      1.85300678      0.07151272     -2.91982408       3      -1       0       0      66      1.76466847      0.03850907     -2.74781309
 Li              2.85052996      7.29578003      7.33386001      0.22343560     -0.79945274     -1.19683015       3       0      -1      -1      67      0.31500535     -0.73970656     -1.21648330
 Li              0.58305196      4.57167999      5.84888998      0.14731900      0.19933370      0.48059063       3       0       0      -1      71      0.00280763      0.20295583      0.57507517
 Li              1.88224001      5.09529000     10.33869999      0.25128697     -0.18554788     -1.44146478       3       0       0      -1      66      0.31968936     -0.19494683     -1.30521369
 Li              9.70890002      6.59104999      5.46274001     -1.48079870     -0.36705646     -1.20636826       3      -1      -1       0      61     -1.42392277     -0.43690398     -1.17336901
 Li              5.85697998      3.32370998      8.81237004     -0.72685563     -0.86061905     -0.16747378       3      -1       0      -1      60     -0.69454935     -0.87916569     -0.14071124
 Li              1.98102003      2.82044001      1.50882995      0.27634524      0.61924195      0.14036562       3       0       0       0      66      0.25304996      0.46307736      0.21040980
 Li              9.53259005     10.32590001     10.69129997     -0.70555701      0.20575877     -0.57147830       3      -1      -1      -1      70     -0.81456898      0.28144933     -0.37271878
 Li              1.25171997      0.97894898      4.53707001     -2.23699139      0.37897683     -2.65479792       3       0       0       0      65     -2.32782498      0.28012786     -2.53666649
 Li             11.42966771      8.51108005      9.38234000      0.21077500     -1.11773678      0.50526382       3      -1      -1      -1      66     -0.01706607     -1.05264156      0.63706318
 Li              6.12660001      6.72888995      9.07989005     -0.29688507      0.86893588     -0.06226829       3      -1      -1      -1      64     -0.24995865      0.86913234     -0.14920110
 Li              8.85758000      9.12637002      7.47494002      0.05878477      0.98246840     -0.94165907       3      -1      -1      -1      65     -0.11829207      1.07589346     -0.84850728
 Li              8.56315001      2.66577002     10.70460003      0.30025297      0.21614169     -0.02849723       3      -1       0      -1      69      0.05873388      0.11627494     -0.11754685
 Li              9.58787998      6.18125998      9.04919994     -0.26924153     -0.91876295     -0.19966687       3      -1      -1      -1      65     -0.20204929     -0.83073772     -0.17542851
 Li              1.20847006      9.00296003      4.85871002      0.43849337      0.12444523     -0.24301089       3       0      -1       0      67      0.42592231     -0.03910455     -0.26419388
 Li              9.51587995     10.41980003      3.88284998      0.00038126     -0.38602065     -0.02360425       3      -1      -1       0      64      0.07178427     -0.36195478      0.00413047
 Cl              9.42071003     10.92659997      6.07486997     -0.16117599     -0.58201414     -0.65667194      17      -1      -1      -1      69     -0.16918962     -0.65418615     -0.74475434
 Cl              8.68137998      5.54076005      6.91746005     -0.05077253      0.04061883      0.24645865      17      -1       0      -1      65     -0.02254695      0.14043227      0.27879194
 Cl              3.85359004      0.10240205      9.72518996      1.43318789      2.06820756     -1.19443506      17       0       0      -1      68      1.23037926      1.95006545     -1.30555627
 Cl              2.54861001      0.87333304      5.83041002      1.78510652     -0.57674918      3.28814925      17       0       0      -1      66      1.86287687     -0.51260851      3.32920052
 Cl             10.19510002      9.22001003      0.95130803     -0.85349419     -1.51543947     -0.06698789      17      -1      -1       0      62     -0.81517618     -1.45160138     -0.13596487
 Cl              2.12529995      9.26675999      0.90615905      5.20685215      2.48409730     -0.68152488      17       0      -1       0      65      5.02934742      2.32722436     -0.74638241
 Cl              5.55241005      4.01102006      2.80370996     -0.17233015      1.26827399      1.32063172      17       0       0       0      64     -0.28158278      1.20396649      1.32509241
 Cl              3.34098998      8.08575996      4.15265998     -0.07711764      0.22658723     -0.31031953      17       0      -1       0      66     -0.18554135      0.23967470     -0.27166672
 Cl              0.36249297     10.43309997      3.25119004      0.24284902     -0.12176171      2.34869605      17       0      -1       0      66      0.30120580     -0.05732817      2.44413950
 Cl              0.00521992      7.44180000      5.70208001      1.33166620      0.32678032      0.48258373      17       0      -1       0      66      1.41590389      0.22970094      0.58206993
 Cl              2.98636999      1.67114994      3.01181003      0.41351699     -0.37678126     -0.23100204      17       0       0       0      64      0.31577360     -0.33494991     -0.34488254
 Cl              8.88293005      8.26508996      9.33247004      0.42128941     -0.99136287      1.06787942      17      -1      -1      -1      63      0.87541693     -1.12679628      0.89943503
 Cl              7.74230996      2.10163997      4.29887002     -1.19762681      0.10528430      2.10867087      17      -1       0       0      65     -1.01844187      0.00262153      2.07717029
 Cl              7.98323994     11.22660000      9.07885998      0.36054274      0.23972810     -0.34070681      17      -1      -1      -1      69      0.22411914      0.09547475     -0.35829441
 Cl              6.40001002      9.26376002      0.55538200     -0.08186190     -0.28939171     -0.08959593      17      -1      -1       0      71     -0.17337103     -0.32133967     -0.14223879
 Cl              1.39041002      5.91624996      0.71115004      0.16903332      0.60352645      1.95006634      17       0      -1       0      62      0.18644513      0.43702173      1.88570284
 Cl              6.98571998      4.90981996      9.44015001      1.02257515     -0.17748879      1.07435686      17      -1       0      -1      65      0.99495510     -0.10547884      1.03080855
 Cl             11.11809999      3.82138997      3.92129005      0.18622756     -0.17726329     -0.24891416      17      -1       0       0      65      0.33352816     -0.22909807     -0.13015505
 Cl              0.86655604      1.48801002      0.32034902      0.15835998      0.18188699     -1.16290983      17       0       0       0      64      0.20879040      0.07415123     -1.17247330
 Cl              3.94289002      3.63139005     10.83640004     -0.99767113      0.59265721     -0.25320407      17       0       0      -1      64     -1.09795031      0.45725755     -0.08494730
 Cl              2.65161003      7.73261003      9.28654998     -0.39259735      1.10460431      1.83554060      17       0      -1      -1      65     -0.60693013      1.14442852      1.76843405
 Cl              2.06021998      5.08319003      7.84688001     -0.07751455     -0.69751260     -1.04176319      17       0       0      -1      61     -0.18810938     -0.69465758     -1.12687867
 Cl              6.51249995      1.92537001     11.13410000      0.34451895      1.03106221      0.34665084      17      -1       0      -1      64      0.23878766      0.95374434      0.33920258
 Cl              9.31512000      0.44681000      0.84548298     -0.86837001      1.87376830      0.69877794      17      -1       0       0      72     -0.65726872      1.86562750      0.71745129
 Cl              5.81018004     10.51820001      5.19403001     -1.13489096     -0.93050688     -0.27635988      17      -1      -1       0      66     -0.94834331     -1.09420782     -0.16464601
 Cl              9.58492002      2.39983002      7.31645999      6.16449867     -4.17377732      4.56388764      17      -1       0      -1      68      5.17354421     -3.41617158      3.83836797
 Cl              5.14848002      6.94689000      7.16376002      0.23304826      0.32556049     -0.74452612      17       0      -1      -1      66      0.29475642      0.30077880     -0.76890406
 Cl             11.07109999      4.74217997      9.95188005     -0.67531719     -0.27853168      0.06460010      17      -1       0      -1      63     -0.77733778     -0.13518206      0.12772440
 Cl              0.25807505     10.15470001      8.26095995      0.18682737      1.31655661     -0.15326796      17       0      -1      -1      69      0.08894128      1.34181181     -0.20821825
 Cl              8.78759000      5.15784003      1.16580001     -3.54161080      0.22397426     -0.30314014      17      -1       0       0      66     -3.31344575      0.21283575     -0.47433789
 Cl              5.80922002      2.27599997      6.65734001     -0.43457370      0.18689944      0.79908426      17      -1       0      -1      64     -0.46948938      0.19350724      0.92523825
 Cl              7.83716002      7.46667003      4.00888002      1.54296133      0.01973183     -0.92841539      17      -1      -1       0      64      1.55448197      0.24718952     -0.87614957
 64
 energy=-221.37310569296102 stress="-0.01367809      -0.00128176       0.00094497      -0.00128176      -0.02436934      -0.00429024       0.00094497      -0.00429024      -0.01900576" free_energy=-221.40487924 cutoff=6.70000000 nneightol=1.20000000 pbc="T T T" Lattice="11.46428009       0.00000000       0.00000000       0.00000000      11.46428009       0.00000000       0.00000000       0.00000000      11.46428009" Properties=species:S:1:pos:R:3:forces:R:3:Z:I:1:map_shift:I:3:n_neighb:I:1:force:R:3
 Li              8.82052997      5.52676996      9.68609997     -1.30339603      1.02201982     -0.03784775       3      -1       0      -1      64     -1.07975645      1.26569068      0.04535895
 Li              2.26609002     11.41899997      8.11146001      0.31977850      0.12338533     -0.24180587       3       0      -1      -1      64      0.18608497      0.23274637     -0.23822693
 Li              6.93361999      7.96028995      6.44881003     -0.88083376      2.44656938      2.11624993       3      -1      -1      -1      69     -0.80121132      2.53669959      2.02416314
 Li              8.17398000      8.30328997     10.90420002      0.20256781      0.05366427      0.79067939       3      -1      -1      -1      66      0.11190260     -0.17994185      0.82333484
 Li             11.09019994      1.66208995      4.18178005     -0.07276570      1.77859541     -0.45741704       3      -1       0       0      65     -0.08033245      1.78415161     -0.44263017
 Li             11.26599998      2.90898002      8.11875003      1.03633267      1.50389730      1.03544919       3      -1       0      -1      65      1.01984154      1.60199006      1.16216494
 Li              9.40119003      5.06675002      1.31783998      0.75636281     -0.06894885      0.74770843       3      -1       0       0      64      0.72652879     -0.07210621      0.71429350
 Li              0.01300955      8.55626995     10.74580001      0.03974286      0.67858752     -0.17973408       3       0      -1      -1      68      0.01197460      0.50755340     -0.14471021
 Li             11.35040001      7.24040997      8.11128002      0.44231656     -0.22463804     -0.48828922       3      -1      -1      -1      64      0.31344718     -0.17557027     -0.54302695
 Li              2.10108005      6.98359003      1.50374004     -1.06665460     -0.11906381      0.36827237       3       0      -1       0      64     -1.01347453     -0.18403994      0.36584634
 Li              3.69335999      7.29149996      4.90181996     -0.54687184     -0.18894045     -1.02500549       3       0      -1       0      65     -0.34031370     -0.30480239     -1.04541590
 Li              8.28739005      2.54707998     10.83779994      0.35405952      0.00615950      0.00600654       3      -1       0      -1      64      0.58375159     -0.05189560     -0.16285715
 Li              4.92941998      9.42609996      0.85667395      0.43836644     -0.19536220      0.37633257       3       0      -1       0      65      0.50106244     -0.21874312      0.41645605
 Li              0.91008098      4.30693995     11.31290000     -1.32553051     -0.43726085     -1.05486989       3       0       0      -1      67     -1.29601900     -0.44373429     -0.91984892
 Li              9.33683002      4.78207005      5.87077999     -0.18592045      0.12911799     -0.07461923       3      -1       0      -1      71     -0.06209867      0.11681242     -0.18342547
 Li              6.27972003      6.87149998      3.52340995      1.10087955      3.43250788     -0.06426802       3      -1      -1       0      61      1.20072598      3.46700798      0.05027611
 Li              5.45285998      5.44163003      0.59678101      0.10372786      0.21979728      0.19938674       3       0       0       0      65      0.16508753      0.27425352      0.01545080