64
Lattice="11.46428009 0.0 0.0 0.0 11.46428009 0.0 0.0 0.0 11.46428009" Properties=species:S:1:pos:R:3:forces:R:3 energy=-221.79470818 stress="-0.02226752414611192 0.005223333708253297 -0.0028588270360061416 0.005223333708253297 -0.023940871931365036 0.00036938413800127273 -0.0028588270360061416 0.00036938413800127273 -0.01820485059595747" free_energy=-221.79470818 pbc="T T T"
Li       1.95944999       8.32631002       3.29561000       0.14014198      -0.04929204      -0.13905895
Li       6.46481003       0.10979295       2.41077004       0.83530255      -0.41720988      -0.15313844
Li      10.31539999      11.32010003       8.69778995      -0.11845165      -0.02497239       0.96824303
Li       6.03420995       1.78786996       5.11418004      -0.16272915       0.36315117       0.14380297
Li       4.18351001       6.34585001       1.03285998      -0.26270764      -0.84593186      -1.38852699
Li       2.05503996      10.08030005       7.54033995      -0.88951548      -0.52991709       0.19889667
Li       7.09737003       4.52147997       2.08543005      -3.65283424      -1.25704806      -2.14930060
Li       8.67398002       1.36697003       0.35627096       0.65040372      -1.87567624       0.58682322
Li       6.91982995       8.21608005       2.59064998      -0.13269760       2.20494842       1.67480253
Li       6.39843999       9.43196004       5.75339998       1.85095643      -1.31670057       2.36850195
Li       6.41650999       2.81258996      10.35549997       0.87590767       1.16512394      -0.89213661
Li       3.04458996       0.25733503       3.88953996       1.44071874       1.35414016       0.88666262
Li       0.53142097       7.51943002       9.88723996      -0.92898561       0.31377370      -0.12089635
Li       9.97374002       3.32776994       3.99442998      -0.10519866      -0.54223639      -0.11486737
Li       8.15296001       5.74947002       7.06747004      -0.30258324      -0.35482864       0.31718250
Li       7.31488996       7.20280999      10.14099997       3.62587914      -3.24310145       1.98911409
Li       2.21386999       4.26143994       3.51485003      -0.55605867       0.32167970      -1.69847183
Li      10.57109998       7.08436002       2.83450003      -0.56474563      -1.11748582      -0.20348802
Li      10.33659996       8.92277003       5.96349002      -0.17262847       0.10961791       1.57872771
Li      11.01920005      11.43370004       3.00378996       0.17880864      -2.30685756       1.95784404
Li       1.68382004       2.73946000       6.22406004      -0.72368620      -0.90850334       0.22510657
Li       9.79912000       2.58967001       7.42651994      -0.62616232      -0.55983532       0.66191724
Li       0.38553698       0.75688897       0.49904000       0.94858174      -0.56092659      -1.26678107
Li       4.56374006       6.69532002       4.57658005      -0.11859791      -0.17143970       0.31910908
Li       4.43877000       3.82463998       7.79087001      -1.11059915       0.21415768      -0.12715780
Li       3.85642997       7.50489997       8.66355004      -0.02384533       0.34981061       0.03937062
Li       1.00313001       5.91616994       6.50222004       0.22626984      -0.51191336      -0.38250657
Li       1.93081004       2.25936003       9.90088005      -0.00587863       0.03411138       0.22487304
Li       3.98329003       1.78014005       0.85430405       1.16895309       0.14740607       0.64941496
Li       9.63860002       4.55432994      10.64169999       1.71795512       0.18742980      -0.01786328
Li       9.47695998       9.12783000       0.29560497       0.00881155       0.45050242      -0.41066205
Li       5.83132005      11.31390003       9.35644999      -0.30216770      -0.42168555       0.08797839
Cl       1.73734997      10.51930000       3.16947999      -0.91499518      -1.49243908      -1.41050758
Cl      11.24919999       2.58407006       9.31827004      -0.41860067      -0.44118362       0.58459365
Cl       3.19890994       3.63801996       5.10989996       1.17076359      -1.01160395       0.23091842
Cl       8.44558003       3.31302000       0.19176198      -1.41912904       0.83112085       0.83890475
Cl       0.17551996      10.57659997       7.11864005      -1.91745706       0.61558984      -0.43638735
Cl       2.02363998       2.17143003       0.83032296      -0.90167925       0.03709159      -0.98548374
Cl       4.15137002       4.16742998       1.51836995       0.70801431       0.64299714       0.20823817
Cl       7.96277999       1.94672005       4.11883003       0.38811223      -0.15211289       0.23918722
Cl       8.46761999      10.32339999       1.88753995      -0.62993356      -0.17931725       0.35017436
Cl      10.81409995       8.73527998       4.04097003      -0.34741544       0.99236470      -0.98120663
Cl       0.19298900       1.30437002       4.77122002       0.32542542       0.65355646       0.80362229
Cl       9.73018001       7.84482997       9.98399998       0.03513454      -0.05409369       0.36432951
Cl       3.96206001      10.02299997       7.69950004       2.36986448      -0.19838916       0.32629799
Cl       5.19776003      10.12019998       4.52673003      -1.43480317       0.58052808      -1.82769809
Cl       4.37088003       7.69636995       2.49096004      -0.83613592       1.13728245       2.11629927
Cl       6.14388998       8.36127000       9.51651002      -3.67856916       3.25433949      -1.84641943
Cl       3.58536005       1.86139004       8.40348996      -0.26085446       0.08834224       0.25187845
Cl       5.93624000       1.22672004       0.02518874      -1.94488628      -0.97434309       1.44291099
Cl       6.94746998       6.83083996       1.31194000       0.28337220      -1.75943594      -2.94691996
Cl       0.93673796       6.23509005       3.85804999       0.77690022      -0.91807421      -0.00533574
Cl      11.16959994       3.81050005       6.58791003       0.41343680       2.15647190      -1.19555189
Cl       7.95868999       0.38151404       9.96139001       1.66101563      -0.72722368      -2.34201346
Cl       6.37539002       3.61589997       7.31030000       1.67516227      -0.57432389      -0.52709403
Cl       1.01210998       7.60943998       7.79317995       0.03573330       0.15866874      -0.54168458
Cl      11.05380005      10.58910004      10.80920001       0.37934594      -0.06336203      -0.07466548
Cl       4.92838006       1.29290001       3.15447004      -1.19356019       1.04329084      -0.00896620
Cl       8.35088003       5.27461003       9.29362000      -1.14004599       0.10503728      -1.56591651
Cl       8.62497996       5.02872002       2.87751000       5.06147967       1.27554893       3.07675940
Cl       2.24666001       7.31979002      10.98150000       1.27771216      -0.34874414       0.67635915
Cl       3.72238995       5.78482002       6.92425000       0.17472581       1.47794640       0.48260563
Cl      10.82679997       1.52190003       1.95667002      -2.57990896       3.14484975      -0.81391848
Cl       7.79066996       7.55443999       5.86238997      -0.02684118       0.49932885      -0.29682540
64
Lattice="11.46428009 0.0 0.0 0.0 11.46428009 0.0 0.0 0.0 11.46428009" Properties=species:S:1:pos:R:3:forces:R:3 energy=-223.64687044 stress="-0.02183035918507893 0.0001267097380928154 -0.002528705061229165 0.0001267097380928154 -0.01210246032695074 0.004468044007798319 -0.002528705061229165 0.004468044007798319 -0.014936093854653257" free_energy=-223.64687044 pbc="T T T"
Li       3.35214002       6.96997998       1.72687001      -0.35669211       0.41405664       0.22389623
Li       6.21214005       7.82473997       5.10584000      -1.57648184       0.35256915       0.97779110
Li       0.58765797       8.42954001       1.05319005      -3.21396780      -3.09663491       0.61472048
Li       2.72807999       1.95034001      10.06720004      -0.42373563      -0.05503696       0.25448976
Li       7.28859995       0.38858097       5.68014999       0.77035280       0.81060102       0.51728161
Li      10.63929995       0.81679900       8.13305997       0.14192361      -1.00418375       0.05095816
Li      10.62120003       5.07703004       1.32470995       3.50115933      -0.24027012       0.17783545
Li      11.34600002       0.05671987       1.64909003      -0.10585981       0.42929772      -1.41526006
Li       4.93103002       3.48282995       4.78125001       0.00862869      -0.42594539       0.30469057
Li       4.34904000       0.21991986       6.84765004       0.45906642       0.04354101       0.11092696
Li       5.51734999       3.44721995       0.94262395       0.05062681      -0.44513707      -1.41539284
Li       7.90125005       7.43621999       1.19046999       0.00330293       0.24693761       0.24244342
Li       8.47175000       3.28765001       6.52325998      -6.24814787       4.92129248      -4.66309956
Li       3.11253003       9.89185995      10.20539999      -1.26601683      -2.77238028       0.84978342
Li       6.35958995      11.45673694      10.54180003      -0.30232150      -1.55844406       0.01366835
Li       3.94231004      10.71340001       3.34556996       0.02827459       0.01689341       0.17370131
Li       8.79661996       1.96009004       2.79293995       1.85300678       0.07151272      -2.91982408
Li       2.85052996       7.29578003       7.33386001       0.22343560      -0.79945274      -1.19683015
Li       0.58305196       4.57167999       5.84888998       0.14731900       0.19933370       0.48059063
Li       1.88224001       5.09529000      10.33869999       0.25128697      -0.18554788      -1.44146478
Li       9.70890002       6.59104999       5.46274001      -1.48079870      -0.36705646      -1.20636826
Li       5.85697998       3.32370998       8.81237004      -0.72685563      -0.86061905      -0.16747378
Li       1.98102003       2.82044001       1.50882995       0.27634524       0.61924195       0.14036562
Li       9.53259005      10.32590001      10.69129997      -0.70555701       0.20575877      -0.57147830
Li       1.25171997       0.97894898       4.53707001      -2.23699139       0.37897683      -2.65479792
Li      11.42966771       8.51108005       9.38234000       0.21077500      -1.11773678       0.50526382
Li       6.12660001       6.72888995       9.07989005      -0.29688507       0.86893588      -0.06226829
Li       8.85758000       9.12637002       7.47494002       0.05878477       0.98246840      -0.94165907
Li       8.56315001       2.66577002      10.70460003       0.30025297       0.21614169      -0.02849723
Li       9.58787998       6.18125998       9.04919994      -0.26924153      -0.91876295      -0.19966687
Li       1.20847006       9.00296003       4.85871002       0.43849337       0.12444523      -0.24301089
Li       9.51587995      10.41980003       3.88284998       0.00038126      -0.38602065      -0.02360425
Cl       9.42071003      10.92659997       6.07486997      -0.16117599      -0.58201414      -0.65667194
Cl       8.68137998       5.54076005       6.91746005      -0.05077253       0.04061883       0.24645865
Cl       3.85359004       0.10240205       9.72518996       1.43318789       2.06820756      -1.19443506
Cl       2.54861001       0.87333304       5.83041002       1.78510652      -0.57674918       3.28814925
Cl      10.19510002       9.22001003       0.95130803      -0.85349419      -1.51543947      -0.06698789
Cl       2.12529995       9.26675999       0.90615905       5.20685215       2.48409730      -0.68152488
Cl       5.55241005       4.01102006       2.80370996      -0.17233015       1.26827399       1.32063172
Cl       3.34098998       8.08575996       4.15265998      -0.07711764       0.22658723      -0.31031953
Cl       0.36249297      10.43309997       3.25119004       0.24284902      -0.12176171       2.34869605
Cl       0.00521992       7.44180000       5.70208001       1.33166620       0.32678032       0.48258373
Cl       2.98636999       1.67114994       3.01181003       0.41351699      -0.37678126      -0.23100204
Cl       8.88293005       8.26508996       9.33247004       0.42128941      -0.99136287       1.06787942
Cl       7.74230996       2.10163997       4.29887002      -1.19762681       0.10528430       2.10867087
Cl       7.98323994      11.22660000       9.07885998       0.36054274       0.23972810      -0.34070681
Cl       6.40001002       9.26376002       0.55538200      -0.08186190      -0.28939171      -0.08959593
Cl       1.39041002       5.91624996       0.71115004       0.16903332       0.60352645       1.95006634
Cl       6.98571998       4.90981996       9.44015001       1.02257515      -0.17748879       1.07435686
Cl      11.11809999       3.82138997       3.92129005       0.18622756      -0.17726329      -0.24891416
Cl       0.86655604       1.48801002       0.32034902       0.15835998       0.18188699      -1.16290983
Cl       3.94289002       3.63139005      10.83640004      -0.99767113       0.59265721      -0.25320407
Cl       2.65161003       7.73261003       9.28654998      -0.39259735       1.10460431       1.83554060
Cl       2.06021998       5.08319003       7.84688001      -0.07751455      -0.69751260      -1.04176319
Cl       6.51249995       1.92537001      11.13410000       0.34451895       1.03106221       0.34665084
Cl       9.31512000       0.44681000       0.84548298      -0.86837001       1.87376830       0.69877794
Cl       5.81018004      10.51820001       5.19403001      -1.13489096      -0.93050688      -0.27635988
Cl       9.58492002       2.39983002       7.31645999       6.16449867      -4.17377732       4.56388764
Cl       5.14848002       6.94689000       7.16376002       0.23304826       0.32556049      -0.74452612
Cl      11.07109999       4.74217997       9.95188005      -0.67531719      -0.27853168       0.06460010
Cl       0.25807505      10.15470001       8.26095995       0.18682737       1.31655661      -0.15326796
Cl       8.78759000       5.15784003       1.16580001      -3.54161080       0.22397426      -0.30314014
Cl       5.80922002       2.27599997       6.65734001      -0.43457370       0.18689944       0.79908426
Cl       7.83716002       7.46667003       4.00888002       1.54296133       0.01973183      -0.92841539
64
Lattice="11.46428009 0.0 0.0 0.0 11.46428009 0.0 0.0 0.0 11.46428009" Properties=species:S:1:pos:R:3:forces:R:3 energy=-221.40487924 stress="-0.013678087375321661 -0.0012817631547853878 0.0009449694436584804 -0.0012817631547853878 -0.02436934331903091 -0.0042902427926877415 0.0009449694436584804 -0.0042902427926877415 -0.019005760678741768" free_energy=-221.40487924 pbc="T T T"
Li       8.82052997       5.52676996       9.68609997      -1.30339603       1.02201982      -0.03784775
Li       2.26609002      11.41899997       8.11146001       0.31977850       0.12338533      -0.24180587
Li       6.93361999       7.96028995       6.44881003      -0.88083376       2.44656938       2.11624993
Li       8.17398000       8.30328997      10.90420002       0.20256781       0.05366427       0.79067939
Li      11.09019994       1.66208995       4.18178005      -0.07276570       1.77859541      -0.45741704
Li      11.26599998       2.90898002       8.11875003       1.03633267       1.50389730       1.03544919
Li       9.40119003       5.06675002       1.31783998       0.75636281      -0.06894885       0.74770843
Li       0.01300955       8.55626995      10.74580001       0.03974286       0.67858752      -0.17973408
Li      11.35040001       7.24040997       8.11128002       0.44231656      -0.22463804      -0.48828922
Li       2.10108005       6.98359003       1.50374004      -1.06665460      -0.11906381       0.36827237
Li       3.69335999       7.29149996       4.90181996      -0.54687184      -0.18894045      -1.02500549
Li       8.28739005       2.54707998      10.83779994       0.35405952       0.00615950       0.00600654
Li       4.92941998       9.42609996       0.85667395       0.43836644      -0.19536220       0.37633257
Li       0.91008098       4.30693995      11.31290000      -1.32553051      -0.43726085      -1.05486989
Li       9.33683002       4.78207005       5.87077999      -0.18592045       0.12911799      -0.07461923
Li       6.27972003       6.87149998       3.52340995       1.10087955       3.43250788      -0.06426802
Li       5.45285998       5.44163003       0.59678101       0.10372786       0.21979728       0.19938674
Li       7.67677005       0.35926795       6.36735998      -1.75269718       4.40695281       2.67096151
Li       1.02599999      10.02030002       3.05181005      -0.04685204      -0.39486529      -0.04129313
Li       2.92143000       5.91884995       8.38699997       1.10588944       0.30486369      -1.03314361
Li       6.33482000       3.46989996       8.47437005      -0.53832108      -0.61597211       0.54543894
Li       4.18439001      10.89290003       4.56569001      -0.61349832       3.30894426       0.99066652
Li       6.27630001      10.81959994       9.20498002       0.64946668      -1.03638456      -0.38001641
Li       1.13458002       4.90848001       4.63560000       0.44590673      -0.14162978      -0.59923551
Li       2.00969002      11.43529999      11.23469997      -0.16074854      -0.40196936      -0.60983826
Li       4.18132996       2.89131001       5.68582997       0.09952327      -0.74211617      -0.09928521
Li      10.11409995       7.52396999       4.68295000      -0.30448678       0.45933911      -0.96917698
Li       3.47125997       2.80000997       2.27634998       0.69607836      -0.63552914       0.72369929
Li       4.60992001       1.71550994      10.16920003      -0.16411353      -0.64443569      -0.39507455
Li       8.68358995      10.54040001       2.32663002       1.26391123       0.51113240       1.57335716
Li       7.03283003       3.36481997       3.55574999       0.28834101       0.36188244       0.18537108
Li       9.87688004       0.10793700       8.59735999       0.12821305      -4.28257176       1.37882528
Cl      11.34670003      11.20479998       4.54645995      -0.27677321      -1.87684880       0.04243524
Cl       9.78034002       3.83581995       9.45246998       0.60458872      -1.06407829      -0.01708396
Cl       3.56241005       7.55729998       6.91469005       0.07289569       1.03918933       1.96531063
Cl      10.37060004       1.34324001       7.44405995       0.68761216       1.96850426      -4.97879817
Cl       5.32201998       3.70673995      10.42399996      -0.30157734       1.61981156       0.95066579
Cl       0.77087195      10.21169996       9.14585001      -0.44212139      -0.58432736      -0.09758187
Cl       7.56857006       4.10342995       7.04325003       0.38318623       0.06789405      -0.98861623
Cl       9.64362000       7.83721998       2.38823000       0.22226040      -0.07239856       0.36072023
Cl       7.56450998       6.65353994       5.26156001       1.71241773      -1.39022487      -1.45330390
Cl       6.37553000       1.42347999       3.10318997      -0.31000813      -0.19420999      -0.09050224
Cl       1.41487995       9.10280004       0.73400099       0.48331260       1.23324760       0.23347806
Cl       2.24267996       1.73646997       9.51732995       0.08008734       0.26819729       0.33365701
Cl       8.19232996      10.42130001       5.45584998       1.26430963      -4.46713598      -2.51880695
Cl      10.42729996       3.05411001       1.10391995      -0.43769282      -0.13371210      -0.69339794
Cl       7.88773000       6.12286002       0.26376397      -1.53056399      -0.47738024      -0.21701463
Cl       7.63492004       8.54134999       8.87252002      -0.86863987       0.49799376      -1.15913105
Cl       1.26344999       7.77715002       3.50474002       0.62484300      -0.57723667       0.81075834
Cl       2.04218999       4.01415003       1.45470995       0.75044468       0.92393605       0.89245083
Cl       4.84698000       0.85018104       6.76791998      -0.60672442      -0.14072111      -0.67531166
Cl       6.74361995       1.38166002       9.18727000      -1.28562616       1.30707308      -1.12995791
Cl      10.28910001       4.16883997       3.91180004      -0.36557556      -1.09659907       0.02504486
Cl      11.27069999       6.05832002       5.83107999      -0.10832022       1.07129480       2.54840949
Cl       4.73742997      10.86660005      10.64090002      -1.50583757      -0.05452205       0.68729823
Cl      10.23660003       7.06282999       9.97474005      -0.05438983       0.83331332       0.15976538
Cl       3.36759995       4.89601995       5.68173997      -0.66304747      -0.82074387      -0.25553088
Cl       7.39220002       9.70024999       1.16706004      -2.06260980      -0.77080748      -1.58157033
Cl       4.10304005       7.33745005       1.38329998       1.63645239      -0.22667550      -0.67995608
Cl       5.67179998       5.14291996       3.26394004      -1.22479895      -3.62455622      -1.13439156
Cl       1.26335002       5.53588005       9.48271997      -0.02251963      -0.26863942       0.12816280
Cl       2.39011003       1.36847999       3.74048999       0.84008901       0.19923222      -0.11038403
Cl       9.01691997       0.63100097      10.17940003       1.07609467      -1.10808761       3.58205903
Cl       4.69719001       9.16987995       4.07350004       1.11945816      -2.69851042      -0.89636122
64
Lattice="11.46428009 0.0 0.0 0.0 11.46428009 0.0 0.0 0.0 11.46428009" Properties=species:S:1:pos:R:3:forces:R:3 energy=-221.65076447 stress="-0.02750833635806852 -0.004133016113225762 0.0008691197037344762 -0.004133016113225762 -0.024657910774077876 0.000293717230604093 0.0008691197037344762 0.000293717230604093 -0.022633917902192872" free_energy=-221.65076447 pbc="T T T"
Li       7.47275997       8.25953999       7.25128005       0.57840185      -0.43232432      -0.75979181
Li       9.86190998       9.56061999       8.57111997       1.75326962       0.21829224      -0.65123575
Li       0.86778799       2.05027002       4.78727999      -0.08790792       0.37067766       0.17466040
Li       3.67255003       4.06207004       1.79998999      -0.08950988       0.32585510      -0.12540780
Li       0.49229900       5.60020005       4.95688003       0.38215291       0.47609196       0.26176575
Li       6.35684002       9.61025998       4.55032994      -0.06626259      -0.37444545       1.22082042
Li       4.96281004       0.79467902      10.55039996      -0.31191930       0.41361795      -0.25033777
Li       1.89188996       6.87267003       0.25139997       0.42140584       0.86087562      -0.09954315
Li       1.77879002      11.06590003      10.72619999      -0.65929807       0.40266582      -1.19027754
Li       4.54651004       5.02348004      10.04170004      -0.15049293      -2.06198612       0.00622568
Li       4.10011998       7.52410000       6.98196004      -0.56876333      -0.35141145      -0.35889790
Li       7.08158005       2.86511000       0.93640102      -0.99237765      -0.24626876       0.41377433
Li       1.14558997       9.57024001       6.11117998      -1.79091658      -0.26335849      -0.84560266
Li       8.83155001       3.94510996       3.25024997       1.63805854      -3.37780875      -1.37410622
Li       4.82829001       2.31055996       4.54796005       0.84217113       0.37713890       0.15057349
Li       6.40054999      10.93580005       8.40344995       1.07263232       1.15815155      -1.34680167
Li      10.01370003       5.85228994      10.05740003       0.79026945       0.27627393       0.56504946
Li       7.22817999       4.87141004       5.46718001      -0.80910408      -0.44954551       1.05382698
Li       2.46099000       8.80429002       2.89209004      -0.92170595       0.77489767       1.48047938
Li       4.91917000      11.27560005       2.28910995       0.24035250       0.57807864      -0.66370227
Li       9.28166000       7.47481001       3.55368998       0.46966870       0.34167678       0.25975421
Li       2.80892001       3.01321004       7.63017004      -0.50018577      -0.27601274      -0.62444781
Li       7.98525995       3.19665996       8.09610005      -0.12835927       0.77359307      -2.86101274
Li       0.49176694       4.53791997       1.14892997      -2.42980476      -0.24094486       1.74394619
Li       3.95275996      11.33849997       6.91568997       0.39161615       0.19741978       0.14717930
Li       9.47302005      10.51750000       4.62135001       3.68136472       2.10193029       2.15761004
Li       7.64843998       1.10725995       4.70286999      -1.43514830      -1.26102507       0.95628298
Li       9.88331001       1.16066997      10.29359997      -0.56647355       0.23637196       0.21883624
Li      10.50400000      10.08110002       1.47411004      -1.28505147      -1.52861982       1.57019923
Li       5.16133996       7.02238997       3.00169005      -0.37804331       0.28408436       0.28894616
Li       4.55634995       9.06961003      11.27289998      -0.69909924      -1.24500795       0.89257631
Li       7.95601996       8.03581995      10.86319997      -0.77870868       0.44882045       0.28980307
Cl       5.26922996       3.53417995      11.46199996      -0.58376694      -1.03969814      -0.62851225
Cl       6.61162997       1.23140997       2.95651998      -1.43318081       0.39188100      -1.47454053
Cl       5.56751998      10.17479999      10.02079997      -0.51538406       0.81189380       0.22122693
Cl       7.52565994       1.76851000       9.16287000      -0.59156769      -3.81094109       2.65303676
Cl       2.11973003       4.82539001       0.22650506       2.71626097      -1.18754540      -2.10688077
Cl       3.36964999      10.87800002       0.49195897       0.56875345       0.92245485       1.49655652
Cl       6.24206996       2.96223997       6.58490995      -0.56443446       0.91538320      -0.75440988
Cl       3.01661998       9.45518002       6.74087001       1.44559158      -0.62489590       0.66786793
Cl      11.22489996      10.72919997       7.27908999      -0.39456019       1.22004709       0.85061667
Cl       9.85328001       7.97280000      10.01759995       2.32546965      -1.02928407       0.54750107
Cl       9.05423998       3.01182997       0.72236303       1.87849657       0.31520218       0.14914137
Cl       2.75270996       6.22372998       5.17837003       0.73099848       0.91140491      -0.13085078
Cl       3.19261995       1.44155996       5.65271001      -0.78107344       0.49524928      -0.90080650
Cl       0.98468696       4.06670000       3.34387003      -0.14328787      -0.81323908      -0.62585767
Cl       4.68533995       6.90974998      10.21800004       0.29514342       2.23108891      -0.61983055
Cl      10.68399998       8.19757005       5.62696995      -0.17784804      -1.32699738      -0.41766086
Cl       3.52814997       7.91288996       1.47553000       0.32835344      -1.59360093      -1.00211203
Cl       6.08633001       7.40630005       6.01454000      -0.23512243      -0.68695705      -0.71242239
Cl       8.02488004       9.45483002       1.10874996       0.03123825      -0.14489382      -1.17323338
Cl       8.22511998       9.45804002       3.88411002      -1.69300683      -2.51782376      -1.26097679
Cl      11.29250000      11.33669996       0.23645204       0.58648377       1.69377406      -1.95211377
Cl       0.86697896       4.14905996       6.58707005      -0.02322247      -1.12775298       1.10405761
Cl       5.53502000       4.90233998       2.72292003      -0.82971056      -0.59858376       0.37328782
Cl       8.79207001       4.71931997       8.94721004       0.23676749       1.41798973       0.10384896
Cl       8.12428005       5.56733999       3.75184994       0.20218374       3.72951238       0.33438865
Cl       0.08960160      10.68869999       3.63185997       0.48700867       0.17389736      -0.34386094
Cl       9.05515002       2.37715000       4.82191003       2.49331170       1.42388308       0.35781719
Cl       7.90004997       9.40722001       8.80940996      -1.05085150       0.91070755      -0.12403491
Cl       0.01368996       6.89053997       1.23061996      -1.04653429       0.30702852       0.65350160
Cl       6.58138995      11.11400002       6.06584002      -0.44566045       0.27733876       1.03605821
Cl       3.09123995       0.93292001       8.80328001       0.10242293       0.39733086       0.75267726
Cl       4.64993998       9.69946996       3.55406004      -1.53150317      -0.55160858       0.22537490
64
Lattice="11.46428009 0.0 0.0 0.0 11.46428009 0.0 0.0 0.0 11.46428009" Properties=species:S:1:pos:R:3:forces:R:3 energy=-225.72334994 stress="-0.020775133407813614 -0.007059755487102412 -0.0022712382971753825 -0.007059755487102412 -0.015096458858526368 -0.0034326723275077266 -0.0022712382971753825 -0.0034326723275077266 -0.0016090740287501768" free_energy=-225.72334994 pbc="T T T"
Li       6.92776999       7.62657003       5.54531997      -0.96077994      -0.95481116       0.37946836
Li      11.14139999       1.51581995       2.12755004       0.93335857      -0.12922932       0.56972054
Li       0.59968205       7.27648003      10.12670000       0.24857852      -0.31397605       0.42802919
Li       1.16844997       3.33925004       0.06449185      -0.01687064       0.40729114      -0.13947006
Li       1.60588999       2.12796998       7.62332999      -0.22922190      -0.00856399       0.25928953
Li       6.85270005       5.64915998       2.53475004      -0.45350667      -0.26405732      -2.47308581
Li       3.76595995       6.13826996       1.77211998       0.20627806       0.24003917      -1.17061757
Li       0.92066504       4.64456999       3.30317001      -1.35500435      -0.37789512       0.34579848
Li       6.50692005       1.91530002       9.85037004      -0.62039919      -0.30225723      -0.23555266
Li       4.71825000       3.80962005       5.51153004       0.30134440       0.51223209       0.15021585
Li       0.14656795      10.99520004      10.13269995      -1.42977953      -0.27606223       0.39712580